ITEM: TIMESTEP
0
ITEM: NUMBER OF ATOMS
144
ITEM: BOX BOUNDS pp pp ss
0 11.6148
0 11.6148
-0.00116148 11.6159
ITEM: ATOMS id xs ys zs fx fy fz 
1 0 0 9.998e-05 -0.236328 1.18889 2.06075 
2 0.125 0.125 0.125075 2.13216 0.811656 0.305558 
3 0.25 0 9.998e-05 -1.50141 -1.99334 -0.388728 
9 0 0.25 9.998e-05 0.81674 -2.41907 2.66448 
11 0.25 0.25 9.998e-05 2.80237 -1.57193 1.47678 
33 0 0 0.25005 -2.98599 2.61985 1.31272 
35 0.25 0 0.25005 -2.5837 -2.4834 1.42465 
41 0 0.25 0.25005 1.01152 0.597818 -2.81117 
43 0.25 0.25 0.25005 2.76729 2.52947 -1.91438 
4 0.375 0.125 0.125075 0.715487 0.451174 2.20669 
5 0.5 0 9.998e-05 -1.52283 1.66102 3.81233 
6 0.625 0.125 0.125075 2.64248 0.360491 0.563433 
13 0.5 0.25 9.998e-05 1.63223 0.914387 0.95178 
37 0.5 0 0.25005 -0.044338 1.10566 1.45417 
45 0.5 0.25 0.25005 -1.05709 0.792194 -1.60047 
7 0.75 0 9.998e-05 -0.276973 1.13111 0.644196 
8 0.875 0.125 0.125075 -2.78057 -2.66261 -1.44145 
15 0.75 0.25 9.998e-05 1.13975 -0.311749 -0.128182 
39 0.75 0 0.25005 -0.900122 1.04643 1.3373 
47 0.75 0.25 0.25005 -2.5002 -1.6075 0.957548 
10 0.125 0.375 0.125075 -1.15745 -2.75528 0.32067 
17 0 0.5 9.998e-05 -2.52386 -0.0457194 3.63704 
18 0.125 0.625 0.125075 -2.81291 -2.35288 -3.2288 
19 0.25 0.5 9.998e-05 1.09389 -0.390819 2.08435 
49 0 0.5 0.25005 -1.17072 2.43815 -0.0939609 
51 0.25 0.5 0.25005 2.24113 1.11264 0.196614 
12 0.375 0.375 0.125075 1.46888 2.60141 0.114272 
14 0.625 0.375 0.125075 -0.630779 -2.84834 -1.77832 
20 0.375 0.625 0.125075 2.69369 -2.54375 -1.11535 
21 0.5 0.5 9.998e-05 2.02659 1.99998 -0.0181402 
22 0.625 0.625 0.125075 0.726479 -0.871543 -2.13009 
53 0.5 0.5 0.25005 0.723203 -2.98787 -1.47118 
16 0.875 0.375 0.125075 0.869357 -1.23902 -0.202952 
23 0.75 0.5 9.998e-05 2.24933 0.029839 2.34856 
24 0.875 0.625 0.125075 0.364642 2.63981 -3.44939 
55 0.75 0.5 0.25005 2.46469 -1.82208 -0.613008 
25 0 0.75 9.998e-05 -1.30594 -2.32274 3.61635 
26 0.125 0.875 0.125075 -0.166826 -1.58619 2.01798 
27 0.25 0.75 9.998e-05 0.00726389 0.301189 3.02306 
57 0 0.75 0.25005 -1.05622 -0.088266 0.102355 
59 0.25 0.75 0.25005 -2.87427 -0.490595 -0.808907 
28 0.375 0.875 0.125075 1.88236 2.50916 -1.10573 
29 0.5 0.75 9.998e-05 2.70797 -1.4795 4.09282 
30 0.625 0.875 0.125075 -1.47788 -3.13175 1.4462 
61 0.5 0.75 0.25005 -2.06288 -2.66648 -2.11139 
31 0.75 0.75 9.998e-05 0.0794655 1.13673 -0.0650127 
32 0.875 0.875 0.125075 2.5332 1.02783 -2.7803 
63 0.75 0.75 0.25005 -0.407683 -1.4702 -2.74409 
34 0.125 0.125 0.375025 1.41368 -2.87683 1.74583 
65 0 0 0.5 -2.79601 1.26295 1.4328 
66 0.125 0.125 0.624975 -0.21891 2.35467 0.231453 
67 0.25 0 0.5 0.801821 -3.04866 0.660501 
73 0 0.25 0.5 -1.69562 -2.46858 1.94349 
75 0.25 0.25 0.5 -1.12614 2.29791 -2.80014 
36 0.375 0.125 0.375025 0.883306 0.122326 -1.68898 
38 0.625 0.125 0.375025 -1.00283 -0.356676 -0.126948 
68 0.375 0.125 0.624975 2.37243 1.79505 -1.16924 
69 0.5 0 0.5 1.55763 1.49669 0.641354 
70 0.625 0.125 0.624975 0.608986 -0.284276 -1.45826 
77 0.5 0.25 0.5 1.33451 1.07753 -2.94235 
40 0.875 0.125 0.375025 0.175588 2.62699 -0.150113 
71 0.75 0 0.5 0.280038 -2.7438 1.92193 
72 0.875 0.125 0.624975 0.511129 -2.62854 0.403786 
79 0.75 0.25 0.5 -0.613588 -1.33577 -0.156976 
42 0.125 0.375 0.375025 0.865421 2.38662 2.17532 
50 0.125 0.625 0.375025 2.65579 2.5669 -1.56959 
74 0.125 0.375 0.624975 1.78146 -2.72332 1.62306 
81 0 0.5 0.5 2.84929 -0.788711 0.588423 
82 0.125 0.625 0.624975 2.32339 -2.18262 0.486756 
83 0.25 0.5 0.5 2.04321 -2.957 -0.309861 
44 0.375 0.375 0.375025 -2.14448 -1.95234 -0.805066 
46 0.625 0.375 0.375025 0.0331867 -2.127 -1.81495 
52 0.375 0.625 0.375025 0.828879 -2.69749 -2.14505 
54 0.625 0.625 0.375025 1.65702 -1.80556 -1.31687 
76 0.375 0.375 0.624975 -0.794312 0.0627617 -2.32909 
78 0.625 0.375 0.624975 -2.47003 -0.0822359 1.73051 
84 0.375 0.625 0.624975 2.85292 1.7236 2.09519 
85 0.5 0.5 0.5 2.24833 -0.649746 -1.23164 
86 0.625 0.625 0.624975 -1.99767 1.85954 2.04853 
48 0.875 0.375 0.375025 -0.108813 3.08586 1.53798 
56 0.875 0.625 0.375025 1.87904 1.44273 -2.4481 
80 0.875 0.375 0.624975 0.763467 -1.47359 -2.0994 
87 0.75 0.5 0.5 0.410145 -2.43192 2.26149 
88 0.875 0.625 0.624975 0.561933 1.21895 -0.323421 
58 0.125 0.875 0.375025 2.39853 -0.00986465 1.82568 
89 0 0.75 0.5 2.22616 1.04158 -2.42642 
90 0.125 0.875 0.624975 1.55156 -0.444085 -0.513041 
91 0.25 0.75 0.5 -0.721494 -2.03518 1.09245 
60 0.375 0.875 0.375025 -2.2589 -0.2258 2.66261 
62 0.625 0.875 0.375025 -2.93237 -1.37608 1.40071 
92 0.375 0.875 0.624975 -0.800348 -0.969571 2.28605 
93 0.5 0.75 0.5 -2.3996 -2.20777 -2.15951 
94 0.625 0.875 0.624975 -0.841463 1.6008 0.857694 
64 0.875 0.875 0.375025 -1.31155 -1.39938 -0.297894 
95 0.75 0.75 0.5 -2.86424 -2.51734 -1.55829 
96 0.875 0.875 0.624975 1.49268 -0.0905616 0.0780592 
97 0 0 0.74995 -2.58632 2.49494 -1.36989 
98 0.125 0.125 0.874925 2.87613 2.24444 -0.617367 
99 0.25 0 0.74995 -2.41547 -0.992313 0.304472 
105 0 0.25 0.74995 -1.91981 0.118014 3.06796 
107 0.25 0.25 0.74995 0.0585304 2.86856 -1.39633 
129 0 0 0.9999 0.489129 -1.31419 -1.89357 
130 0.25 0 0.9999 -2.73531 -2.11636 -0.328815 
133 0 0.25 0.9999 -2.58055 -1.50201 -1.25831 
134 0.25 0.25 0.9999 -1.03054 -1.45744 1.56577 
100 0.375 0.125 0.874925 2.57244 2.87482 1.92992 
101 0.5 0 0.74995 1.25611 0.243418 -2.3401 
102 0.625 0.125 0.874925 0.403441 -1.76086 2.09874 
109 0.5 0.25 0.74995 1.58034 -0.196572 -0.533377 
131 0.5 0 0.9999 2.82952 -1.42543 -3.72799 
135 0.5 0.25 0.9999 1.55867 1.53196 -2.08134 
103 0.75 0 0.74995 -1.00591 2.66375 1.44295 
104 0.875 0.125 0.874925 0.607734 -0.538286 1.49023 
111 0.75 0.25 0.74995 1.97409 1.00543 -1.12037 
132 0.75 0 0.9999 -1.76458 2.20989 -0.374116 
136 0.75 0.25 0.9999 -2.69161 -1.65525 -3.30343 
106 0.125 0.375 0.874925 -0.764583 -1.35725 1.06792 
113 0 0.5 0.74995 -1.2643 -3.06798 1.71472 
114 0.125 0.625 0.874925 -2.36582 0.824324 -1.3201 
115 0.25 0.5 0.74995 0.584655 -0.906916 1.38666 
137 0 0.5 0.9999 -2.95359 0.854996 -0.392064 
138 0.25 0.5 0.9999 2.33139 -0.393033 -1.10103 
108 0.375 0.375 0.874925 0.133992 2.64483 1.56562 
110 0.625 0.375 0.874925 1.17901 0.8029 2.47322 
116 0.375 0.625 0.874925 -2.33332 2.9659 -0.996927 
117 0.5 0.5 0.74995 0.698854 -2.77999 1.40572 
118 0.625 0.625 0.874925 2.5108 1.63149 0.228273 
139 0.5 0.5 0.9999 1.52072 2.19301 0.180643 
112 0.875 0.375 0.874925 0.0144662 1.56542 0.00102824 
119 0.75 0.5 0.74995 1.67138 -0.448413 -0.99818 
120 0.875 0.625 0.874925 1.27476 -1.27366 1.12691 
140 0.75 0.5 0.9999 2.26376 -0.560361 -3.19249 
121 0 0.75 0.74995 2.06676 -1.30377 -2.01039 
122 0.125 0.875 0.874925 2.17577 -1.79422 1.60487 
123 0.25 0.75 0.74995 -1.91997 -0.726561 2.14416 
141 0 0.75 0.9999 -0.59075 -0.596037 0.614501 
142 0.25 0.75 0.9999 -2.5192 -3.17253 -0.0771928 
124 0.375 0.875 0.874925 0.729463 -1.65937 -2.15663 
125 0.5 0.75 0.74995 2.56662 -1.51328 1.39966 
126 0.625 0.875 0.874925 2.70189 0.806522 -1.99498 
143 0.5 0.75 0.9999 1.2253 0.0187544 0.511133 
127 0.75 0.75 0.74995 1.40203 -1.67648 1.387 
128 0.875 0.875 0.874925 0.923764 -1.47011 3.26829 
144 0.75 0.75 0.9999 -0.780444 -1.2701 -1.09032 
ITEM: TIMESTEP
250
ITEM: NUMBER OF ATOMS
144
ITEM: BOX BOUNDS pp pp ss
0 11.6148
0 11.6148
-0.00116148 11.6159
ITEM: ATOMS id xs ys zs fx fy fz 
1 0.00620423 0.00120703 -0.0012718 -2.9036 1.3659 -2.20319 
2 0.105284 0.124803 0.132453 2.64558 -2.7037 1.56008 
3 0.243221 0.0147403 0.012512 -1.06663 -2.34234 0.0305195 
9 -0.0241168 0.244001 0.0033011 -0.428365 -2.06009 1.04924 
11 0.251543 0.241247 0.00885874 -2.08708 3.10021 -1.49766 
33 -0.00135032 -0.00736165 0.26287 0.365686 4.3128 -1.75331 
35 0.241859 0.0103758 0.242569 2.57452 -0.118944 2.9647 
41 -0.0077043 0.25819 0.242876 -1.24818 1.29656 1.62928 
43 0.248142 0.256672 0.24357 -2.46407 -1.98832 2.31969 
4 0.368669 0.126474 0.126104 4.92209 0.238584 4.59566 
5 0.491424 0.00116265 0.0135322 1.89513 1.20587 -4.43318 
6 0.61043 0.134717 0.119578 2.95027 0.265695 3.29415 
13 0.488784 0.265866 0.00850579 -2.61091 -1.81719 -1.17489 
37 0.499468 0.00577073 0.253552 2.31211 2.77385 -2.79211 
45 0.491817 0.262895 0.23587 0.335055 2.08498 3.33045 
7 0.735984 0.00126965 0.0101302 -0.754468 0.868916 2.22147 
8 0.870269 0.114988 0.123949 2.29296 -0.229393 1.40944 
15 0.743897 0.250623 0.00836848 -1.85248 0.501908 1.8496 
39 0.756112 0.00153788 0.246529 -5.24671 -1.32876 -0.775646 
47 0.744078 0.259684 0.24319 0.417419 -1.26575 -3.08867 
10 0.116323 0.366173 0.112189 -1.74594 -0.798803 2.92002 
17 0.00199574 0.5142 0.0113127 0.820453 1.65451 0.973086 
18 0.122623 0.635823 0.133804 -3.76061 -0.545789 -1.5721 
19 0.233839 0.513079 0.00922416 2.08537 -2.38535 -1.23231 
49 0.00071775 0.507312 0.246659 -0.0165261 -2.3782 2.72734 
51 0.237727 0.503711 0.248676 2.87593 -0.1952 -1.94966 
12 0.360411 0.389747 0.120422 1.4287 -3.50177 -2.94544 
14 0.622211 0.382972 0.120871 -2.54175 -0.443714 0.925822 
20 0.368756 0.626056 0.12708 -0.481094 -0.738006 0.76295 
21 0.496464 0.50249 0.00469656 -2.96954 2.88939 2.42748 
22 0.617933 0.633481 0.118221 -2.68833 -3.68293 1.88138 
53 0.493246 0.504501 0.244016 -1.62348 0.103961 -1.15945 
16 0.874191 0.384443 0.124341 0.789641 0.832153 -2.18 
23 0.757632 0.50923 0.0125083 -2.92303 -1.30613 1.60112 
24 0.875594 0.632051 0.128645 3.10205 1.2904 2.11943 
55 0.743651 0.508383 0.238794 -1.01039 1.70866 -1.10308 
25 -0.0124709 0.755877 0.00147278 -0.618339 2.42984 -2.1289 
26 0.121357 0.874677 0.122678 0.194081 2.75435 1.15143 
27 0.246172 0.751038 0.0138514 1.22363 -1.75611 -3.01962 
57 0.00471426 0.757789 0.26309 -1.98219 -2.83947 -0.00372323 
59 0.238566 0.755141 0.251904 3.44342 2.11959 -1.26555 
28 0.366171 0.882675 0.127454 -2.3751 0.0421674 3.33594 
29 0.486133 0.756334 0.00973378 0.581333 0.00504446 2.28161 
30 0.610239 0.879643 0.128933 2.05198 -0.0249254 0.153481 
61 0.503101 0.74706 0.250741 -2.68069 2.54498 1.24478 
31 0.751141 0.76071 0.019472 -1.01793 0.905851 3.05271 
32 0.881954 0.883282 0.13291 -2.74475 -1.2568 0.517003 
63 0.754217 0.756012 0.24465 -1.88076 0.336318 -1.2915 
34 0.127113 0.124082 0.373805 -2.53993 -0.516748 -0.335872 
65 -0.00208851 0.00477457 0.5027 0.608484 1.48487 0.946316 
66 0.137257 0.122995 0.620545 -2.66021 -2.03392 -0.29253 
67 0.258914 0.00304632 0.498865 -0.00380977 -0.493483 -2.83347 
73 0.00998386 0.250668 0.492071 -2.30168 -0.824658 1.95429 
75 0.251732 0.246217 0.497678 -1.166 0.459667 0.482076 
36 0.377663 0.130697 0.373392 -1.76792 -1.62845 -3.21608 
38 0.621154 0.122126 0.378615 1.43374 3.89995 1.69664 
68 0.375546 0.128768 0.626506 3.11019 0.0561272 2.26112 
69 0.490972 0.00659861 0.501423 -1.57116 -2.66703 1.99336 
70 0.61898 0.129103 0.616794 0.796124 -1.15332 -0.132035 
77 0.497306 0.259451 0.493544 2.54538 -2.43881 2.79554 
40 0.875024 0.136862 0.367455 -0.143437 -0.795361 3.02198 
71 0.748969 0.00962186 0.497337 -0.792586 -2.65474 -1.49652 
72 0.881051 0.136347 0.622929 0.625023 -1.67719 2.09228 
79 0.755437 0.251533 0.497136 -3.50984 0.581313 -1.42375 
42 0.113522 0.375922 0.365868 -1.27512 0.201462 2.5325 
50 0.128957 0.628376 0.376705 -2.07554 -0.0197417 -2.21286 
74 0.125875 0.370703 0.619931 2.34661 3.04981 -1.1832 
81 0.0115267 0.50541 0.501274 1.21499 -1.50221 1.22052 
82 0.136477 0.617526 0.630499 -0.954938 2.74316 -1.63072 
83 0.245162 0.494894 0.498806 -1.51085 -0.133022 -3.6148 
44 0.375621 0.382952 0.368195 0.90266 -3.35705 -1.82915 
46 0.616173 0.376175 0.361172 -2.04691 1.30765 0.763396 
52 0.377097 0.624718 0.367549 -3.00869 3.04969 -1.12598 
54 0.624295 0.622372 0.372022 2.21921 0.515855 1.72518 
76 0.374539 0.377089 0.622845 0.050823 2.43517 1.02772 
78 0.624691 0.37349 0.620815 0.631055 0.149264 -0.039284 
84 0.373353 0.614509 0.623346 0.643126 -0.533529 0.433178 
85 0.493984 0.503862 0.491013 1.04427 -0.506842 3.23498 
86 0.626974 0.62353 0.615901 -2.22965 -2.38891 0.863589 
48 0.876034 0.381199 0.367703 2.02803 -2.47127 0.00107336 
56 0.877855 0.632538 0.374179 1.7852 0.95804 -2.81656 
80 0.878298 0.376357 0.613757 1.7214 -1.98772 1.24072 
87 0.744101 0.485241 0.489266 -2.48655 1.67616 -2.4466 
88 0.877824 0.618615 0.620106 -2.95943 2.3387 2.0074 
58 0.130988 0.882289 0.377394 0.419917 -0.0466796 2.36102 
89 0.0160543 0.738051 0.506329 0.248071 0.821574 -0.761358 
90 0.134254 0.886919 0.613969 1.92853 -3.38544 1.88595 
91 0.243933 0.749834 0.499321 2.75998 -0.66993 0.662779 
60 0.370141 0.876966 0.371164 -2.46853 0.90782 -2.48413 
62 0.621127 0.878007 0.372379 2.40091 -0.158667 0.37306 
92 0.377129 0.86419 0.624402 -0.261941 -0.128398 -2.46482 
93 0.499074 0.752287 0.496877 -0.3939 -1.26974 1.55033 
94 0.625691 0.87862 0.606961 -0.274607 2.60096 3.86939 
64 0.877213 0.875748 0.380144 -1.5979 0.803507 1.26585 
95 0.751656 0.742892 0.496995 -2.47844 -1.37021 -1.61725 
96 0.873502 0.871441 0.624628 0.957304 -1.38431 -3.6544 
97 0.00464516 0.000583444 0.733836 -2.05761 2.04293 2.57933 
98 0.112151 0.121033 0.873676 3.66133 -0.985392 -1.71947 
99 0.262248 0.0077988 0.749752 -4.89289 -1.98506 1.28928 
105 0.00911624 0.24959 0.744694 3.36638 -2.11122 1.21883 
107 0.24827 0.249329 0.748604 -2.50604 0.0947874 0.187226 
129 -0.00363887 -0.0322347 0.993572 -1.1142 1.98917 1.16579 
130 0.249415 -0.00732506 0.979463 -0.642164 2.30308 -3.00639 
133 0.00100461 0.250395 1.00163 2.92331 2.34805 0.799291 
134 0.244021 0.245348 0.985167 0.767244 0.558715 2.03139 
100 0.378455 0.129928 0.873396 -2.33624 -2.74087 -1.37962 
101 0.496673 -0.00460313 0.744555 0.767159 -1.95002 -2.31754 
102 0.625102 0.125138 0.867245 -1.02894 -2.98959 -0.881262 
109 0.49744 0.249075 0.749337 0.878944 2.43763 -2.5159 
131 0.504299 -0.00704419 0.97771 -2.76019 -0.807305 -1.69583 
135 0.508494 0.255584 0.979043 2.02901 -2.23102 3.31785 
103 0.756904 0.00866315 0.738756 1.51402 2.4804 1.85075 
104 0.885568 0.127531 0.868265 2.05977 -3.07973 0.517075 
111 0.745955 0.248981 0.743024 1.00815 -1.83773 2.32673 
132 0.763666 -0.00789637 0.978444 2.26076 -2.69907 1.68669 
136 0.751952 0.25078 0.980609 2.31036 0.116283 0.718238 
106 0.120531 0.372027 0.868374 3.95261 1.52282 -0.388793 
113 0.00659139 0.497055 0.75242 -0.035232 1.46929 -1.70862 
114 0.123667 0.620227 0.872722 2.64423 -1.59947 -0.232235 
115 0.252706 0.494184 0.751014 -2.33515 -0.121628 -0.128234 
137 -0.00275454 0.494171 0.979523 1.33729 2.36168 3.6575 
138 0.241095 0.494903 0.993206 -2.68323 -2.37432 0.0997767 
108 0.371523 0.378153 0.886463 3.18208 -1.61125 -0.067569 
110 0.633011 0.379372 0.855967 0.753122 -0.38432 1.34147 
116 0.372083 0.613575 0.88031 -0.754369 0.658295 1.90345 
117 0.495204 0.500945 0.744236 0.626901 -2.5585 -1.25616 
118 0.629166 0.626013 0.862546 -2.18809 -0.563981 0.298343 
139 0.512424 0.501091 0.989042 0.189739 -1.4729 -3.4086 
112 0.884034 0.357022 0.863546 0.502436 2.03403 1.92976 
119 0.749586 0.497678 0.734042 2.82132 -1.38624 1.97763 
120 0.871326 0.625608 0.856363 -1.47302 -2.64019 3.21192 
140 0.761477 0.492087 0.978945 -0.76176 -1.58937 1.72583 
121 0.00589204 0.744937 0.735758 1.28752 -0.423147 2.94738 
122 0.128716 0.866444 0.862049 1.80834 2.20382 -1.55424 
123 0.25471 0.741215 0.749425 1.06212 -2.01722 2.64176 
141 -0.00573014 0.750782 0.97455 2.04315 2.1787 3.11766 
142 0.257188 0.751322 0.98525 1.85899 -0.449679 1.61341 
124 0.375449 0.875504 0.861479 -0.690461 -0.763393 1.46782 
125 0.500578 0.740973 0.745378 1.87465 2.63105 -3.10704 
126 0.625606 0.878001 0.859158 3.84235 1.14318 1.12562 
143 0.502003 0.752353 0.975422 -0.0824837 1.27887 1.94674 
127 0.740421 0.746475 0.742386 -0.723394 2.76827 -1.93883 
128 0.877768 0.870485 0.849927 -0.72745 1.2599 1.6341 
144 0.754114 0.757941 0.973607 -2.25345 1.71332 3.00341 
ITEM: TIMESTEP
500
ITEM: NUMBER OF ATOMS
144
ITEM: BOX BOUNDS pp pp ss
0 11.6148
0 11.6148
-0.00116148 11.6159
ITEM: ATOMS id xs ys zs fx fy fz 
1 0.00156416 0.0140099 0.0184233 0.281026 2.53962 -2.45133 
2 0.131825 0.137461 0.125308 -1.05419 -0.395522 -1.70863 
3 0.245241 0.00599743 0.000755141 -2.09423 -2.45586 -1.9289 
9 0.00626248 0.255305 -0.000558126 -2.76592 -2.30913 2.35846 
11 0.255784 0.257669 0.000144788 -0.785707 -0.501304 -0.363806 
33 -0.00495986 0.00461344 0.246567 -1.27451 -0.952746 1.91319 
35 0.245413 0.00464788 0.236255 0.933567 0.439932 -1.34847 
41 -0.00108795 0.250475 0.245874 2.56842 3.45028 -0.631406 
43 0.253303 0.269877 0.242686 -1.67645 1.45794 0.729922 
4 0.369051 0.131857 0.123414 3.67546 -2.84309 2.37627 
5 0.498399 0.0067568 0.00661482 0.836484 -0.515428 -0.876293 
6 0.62618 0.131626 0.123127 -1.48503 0.824991 -1.20017 
13 0.504898 0.261248 0.00044414 0.00591725 1.5164 -0.673005 
37 0.495767 0.00234683 0.239487 -1.53382 -2.37093 2.83611 
45 0.498165 0.260208 0.243882 1.41513 1.31623 -1.60226 
7 0.746671 0.0142504 0.00252507 2.70085 1.32382 1.78092 
8 0.868632 0.139195 0.124363 3.23737 -0.878377 -3.60518 
15 0.749732 0.253889 0.00399438 -2.48264 2.31751 -2.59915 
39 0.750624 0.00963017 0.234455 -0.79304 -3.43344 -0.613502 
47 0.753019 0.251973 0.247806 -0.800348 -0.748545 3.74564 
10 0.12454 0.3831 0.103974 0.327874 0.120141 -0.608544 
17 -0.0125847 0.507858 0.00391562 2.66714 1.66578 -3.75438 
18 0.111244 0.631146 0.123916 2.44432 1.8027 -2.60777 
19 0.253534 0.509709 -0.00383821 2.67139 1.66125 -1.41952 
49 -0.0084834 0.500969 0.235613 1.3809 -1.53887 -0.992493 
51 0.248845 0.503497 0.239691 -2.89347 -2.85658 -0.284306 
12 0.374204 0.383077 0.115738 3.41025 -1.7849 -1.17173 
14 0.626969 0.376556 0.125423 -2.68586 0.174887 -2.19011 
20 0.382203 0.62572 0.122859 -0.711891 -2.66513 2.76055 
21 0.503081 0.506397 -0.00602166 0.0563272 1.91162 -0.651708 
22 0.617238 0.619464 0.130842 0.286486 1.11406 1.67162 
53 0.500737 0.494743 0.247793 1.73614 -0.119813 1.52981 
16 0.87469 0.376996 0.114469 -2.55015 0.608711 -2.48636 
23 0.744271 0.508881 0.000394519 2.79243 0.805173 2.47338 
24 0.865101 0.630644 0.126945 0.130178 1.62535 1.18554 
55 0.757781 0.496496 0.24706 0.648901 1.879 -1.17386 
25 -0.0162665 0.741513 -0.00288055 0.848139 0.407976 0.863126 
26 0.116047 0.871305 0.116831 0.776872 1.07423 -2.71179 
27 0.241366 0.7477 0.00815757 -0.101503 2.14383 0.622239 
57 -0.00147095 0.759638 0.252325 0.6545 -2.94274 0.402196 
59 0.249126 0.754643 0.240944 -2.03886 -2.16928 1.72677 
28 0.369851 0.878177 0.110026 1.93654 -0.0902762 0.893757 
29 0.49234 0.751096 0.000907112 -1.96407 0.382616 -0.288865 
30 0.625416 0.880109 0.116532 -0.895782 1.17675 1.40722 
61 0.502882 0.762646 0.239142 -3.19419 -3.27663 1.11973 
31 0.731647 0.744316 0.00310778 3.05437 1.08698 -1.64386 
32 0.868813 0.874282 0.110674 0.529901 2.2556 1.52933 
63 0.752065 0.754196 0.246448 -0.806876 0.977239 2.88481 
34 0.12454 0.12938 0.361627 -1.24714 0.314639 1.50256 
65 -0.00436724 -0.00310811 0.491852 -0.725427 -0.240278 0.347916 
66 0.118022 0.139955 0.619259 0.482143 0.146923 -1.24501 
67 0.247047 0.014792 0.492516 -0.865124 -2.25331 0.602685 
73 -0.00272171 0.247675 0.489976 1.25484 -2.0473 -1.23993 
75 0.242916 0.253468 0.478993 -1.7338 2.07356 -1.32174 
36 0.379838 0.127001 0.363439 2.3584 -2.34147 -0.310106 
38 0.62713 0.123653 0.371905 1.76187 -1.97768 1.47551 
68 0.377693 0.130199 0.613988 -1.11447 -0.596476 -2.71138 
69 0.499833 0.00627377 0.491115 -2.6379 -2.40773 1.34247 
70 0.62804 0.134079 0.62239 1.88344 1.42686 1.9062 
77 0.507313 0.25755 0.495808 -1.809 -3.1197 1.97822 
40 0.873876 0.125333 0.366865 0.562614 -1.46237 -1.81408 
71 0.750362 0.00057324 0.499286 -0.813087 -0.833348 -0.48956 
72 0.867742 0.136811 0.621517 -0.868241 -3.0036 -1.96875 
79 0.752467 0.25149 0.488821 2.46556 -2.71754 1.68634 
42 0.11488 0.391584 0.376565 0.878298 1.97022 0.0638949 
50 0.125104 0.631946 0.362042 -0.149717 1.40465 0.809612 
74 0.124081 0.386472 0.625698 0.956234 -0.397583 0.44721 
81 0.0047676 0.522108 0.499768 0.853061 -3.54174 1.66437 
82 0.131166 0.629866 0.626949 2.30527 -0.404168 -1.61812 
83 0.259254 0.502905 0.490629 0.267609 -1.24469 0.35092 
44 0.375243 0.375017 0.37324 -1.91362 -2.18536 -1.87365 
46 0.625668 0.371561 0.365345 1.60082 0.80297 0.602478 
52 0.372678 0.622756 0.359821 -0.698436 -0.669668 1.13293 
54 0.629892 0.625411 0.363242 2.28491 0.560043 0.452846 
76 0.380552 0.381269 0.617439 -1.05596 -1.78781 -0.510674 
78 0.629686 0.382558 0.619164 2.9017 -3.30433 -2.70646 
84 0.372914 0.625721 0.619739 1.49295 -1.57973 1.98782 
85 0.508231 0.500012 0.494583 0.781505 1.19927 1.61882 
86 0.632438 0.627519 0.617218 0.885433 -1.50829 -1.78368 
48 0.87732 0.379275 0.369278 0.23807 -2.41506 1.69354 
56 0.872805 0.62574 0.364925 -1.6624 0.0294085 3.57856 
80 0.884124 0.381209 0.617973 -3.24004 2.95049 -1.45749 
87 0.753819 0.497849 0.493862 -0.0010672 -1.961 1.2263 
88 0.865335 0.629492 0.62162 -1.90319 0.715784 -0.87667 
58 0.138143 0.888305 0.368127 -4.59168 -4.11149 2.64194 
89 3.29927e-05 0.749588 0.486061 1.21945 -1.18063 -2.22356 
90 0.128921 0.869455 0.614345 -1.74834 0.814959 -2.52317 
91 0.249367 0.747891 0.490832 -1.409 0.450082 1.27545 
60 0.367695 0.880053 0.367007 3.42282 -2.79698 -0.579293 
62 0.626638 0.877936 0.374805 0.501617 1.19366 -3.28289 
92 0.372721 0.880665 0.608411 2.32932 0.902793 0.764834 
93 0.49994 0.751069 0.488326 0.697486 -2.65689 -3.62063 
94 0.616506 0.868265 0.611424 -0.457297 0.647443 -1.2529 
64 0.872872 0.883598 0.364841 -2.01536 -0.531072 -1.18483 
95 0.745193 0.753721 0.486892 1.22476 -2.6169 2.18373 
96 0.875162 0.881756 0.618677 1.05297 1.31701 0.187565 
97 0.00874667 -0.00306723 0.734578 1.44823 1.79005 1.11703 
98 0.135318 0.124841 0.853959 -0.807521 0.976254 2.6845 
99 0.25134 0.00878416 0.735532 3.55532 -3.55064 -2.58802 
105 -0.00744782 0.255083 0.745752 1.67218 -2.38161 0.154607 
107 0.258738 0.256056 0.734604 -0.913805 -1.98967 -0.0898327 
129 0.0113659 0.0183093 0.987748 -2.73304 -1.99917 -1.48919 
130 0.260663 0.00848276 0.981074 1.22797 -1.45241 2.743 
133 0.0146595 0.233455 0.979831 -0.910339 -1.42808 1.17337 
134 0.253459 0.249762 0.973283 3.87993 -3.20642 2.59654 
100 0.377766 0.126785 0.855096 -0.606727 -0.517534 3.26509 
101 0.50915 0.0028128 0.735658 -1.83511 -0.537588 -1.91112 
102 0.616999 0.126986 0.867104 0.420558 1.1713 -1.01975 
109 0.504253 0.256435 0.744522 1.6805 2.53373 0.135065 
131 0.496123 0.00407332 0.989393 0.069636 0.435782 0.547154 
135 0.490827 0.252931 0.982699 -1.6244 2.3226 1.16158 
103 0.749349 0.00535615 0.737356 -2.24036 -2.66779 -2.26554 
104 0.873906 0.126811 0.865219 -0.891107 -1.94894 2.40992 
111 0.750662 0.2544 0.750018 -1.59373 -0.841803 -2.71594 
132 0.74675 -0.00223173 0.975391 -1.07668 1.15784 4.07865 
136 0.759791 0.253173 0.990235 0.117929 -2.26903 0.256466 
106 0.131954 0.372472 0.863201 -2.11551 -0.515366 -2.42461 
113 -0.00223076 0.507756 0.747272 -1.28566 -1.8966 0.179391 
114 0.13052 0.630217 0.877032 0.158156 2.13515 -2.33199 
115 0.245969 0.503916 0.744872 2.40595 -2.38684 -0.733612 
137 0.00209443 0.504218 0.986186 2.47961 0.40585 1.54032 
138 0.254631 0.492669 0.982666 -0.893628 -1.03028 1.66578 
108 0.383715 0.380672 0.862116 -1.02378 1.8806 -3.12994 
110 0.63739 0.383679 0.876936 -3.79689 1.34345 -2.05834 
116 0.378502 0.637131 0.864341 1.74808 -1.34062 0.140182 
117 0.504945 0.511117 0.745012 -0.426514 -3.62146 -3.0505 
118 0.629376 0.630354 0.86787 -0.477038 -0.28884 -0.488899 
139 0.497119 0.509985 0.984338 0.722564 -2.41107 1.61581 
112 0.875855 0.376465 0.874925 -2.03286 1.69879 0.721219 
119 0.75761 0.497283 0.743619 -2.89573 -2.68866 -1.32524 
120 0.875442 0.6243 0.864258 -0.861076 2.02716 -1.62195 
140 0.754961 0.516044 0.989857 -2.15042 -1.48492 2.59486 
121 -4.29975e-05 0.750796 0.73726 -1.62791 2.02559 -0.346926 
122 0.116311 0.883523 0.872216 1.25163 -1.13752 -0.196839 
123 0.253901 0.761432 0.745457 -3.14018 -2.23656 1.78668 
141 -0.00723399 0.750649 0.974683 0.275467 0.5665 4.04081 
142 0.254959 0.760888 0.978927 1.88001 -2.05569 0.281939 
124 0.373831 0.886821 0.854279 -0.613733 -1.82738 3.01786 
125 0.505949 0.75289 0.745569 0.897658 2.71368 2.0588 
126 0.626179 0.876593 0.86532 -0.644173 3.64344 -0.783504 
143 0.498188 0.759054 0.982158 -1.91069 -1.44129 0.941965 
127 0.753231 0.757478 0.752293 0.414629 0.621784 0.158726 
128 0.875573 0.879962 0.870165 -0.617495 3.23847 -0.100596 
144 0.74082 0.758196 0.9855 2.31085 2.58309 2.99661 
ITEM: TIMESTEP
750
ITEM: NUMBER OF ATOMS
144
ITEM: BOX BOUNDS pp pp ss
0 11.6148
0 11.6148
-0.00116148 11.6159
ITEM: ATOMS id xs ys zs fx fy fz 
1 0.0179405 0.00451273 0.00537824 -1.05699 -2.19787 0.773515 
2 0.144025 0.139165 0.124156 -1.03725 0.514642 0.606056 
3 0.259636 0.00587865 -0.00315119 1.89006 1.76728 -2.82047 
9 0.0204128 0.244583 -0.00416072 2.16526 1.56998 -1.13684 
11 0.258953 0.256899 -0.00524342 -2.18144 2.66695 2.00177 
33 0.00836385 0.0193207 0.2383 -0.918166 1.82994 2.86777 
35 0.257536 0.0245575 0.251025 1.19629 -1.63203 0.697946 
41 0.00329734 0.256962 0.244139 2.32215 -2.27928 1.40896 
43 0.256693 0.263641 0.253975 -2.185 -2.0872 2.31272 
4 0.367358 0.137087 0.120805 2.28337 -1.15831 0.239201 
5 0.506283 0.00531373 0.0071117 -1.30868 0.263035 1.56226 
6 0.633336 0.135312 0.119045 0.185162 -3.42353 -0.175774 
13 0.502546 0.25268 0.00263208 0.622673 2.70994 -2.16635 
37 0.506203 0.0119013 0.238118 2.39658 -2.86111 -0.281698 
45 0.505653 0.255164 0.245381 0.149525 -2.21061 2.26756 
7 0.761912 0.00453314 0.000164833 1.47384 -0.520746 1.39982 
8 0.885258 0.126886 0.116783 0.601218 3.75781 -0.492882 
15 0.755237 0.252785 0.00179033 3.6249 3.37049 -2.1909 
39 0.751292 0.0108845 0.237428 -1.23692 -1.5335 0.856539 
47 0.758154 0.268732 0.243806 2.16195 0.279268 -2.27354 
10 0.140245 0.383802 0.118322 -0.436505 -1.17605 -1.46437 
17 0.0135343 0.51176 0.0019288 -0.708508 1.62911 -1.99383 
18 0.150268 0.625717 0.122784 -1.46264 0.45596 1.96051 
19 0.267374 0.504195 0.00191784 -2.33335 2.95133 -0.303392 
49 0.0106403 0.5098 0.237523 2.83621 -2.45153 2.25135 
51 0.263702 0.502895 0.251831 -2.2566 0.0536744 1.32207 
12 0.384479 0.379958 0.122411 -0.262541 2.43845 -1.10203 
14 0.632619 0.382049 0.116501 -2.91587 -1.98494 1.31286 
20 0.385037 0.632547 0.123106 1.47458 -1.31728 -0.875787 
21 0.500378 0.496555 -0.00453547 -2.67091 -2.15769 -2.35473 
22 0.626299 0.628256 0.0975065 -0.748198 2.53001 2.11231 
53 0.507762 0.510455 0.241347 2.44159 -1.79945 0.534748 
16 0.897754 0.372456 0.112031 0.864345 1.46811 -2.26915 
23 0.762143 0.496563 -0.00399479 -2.19438 -2.20281 0.997383 
24 0.87741 0.627758 0.11247 2.3807 1.04504 -1.92369 
55 0.749913 0.514613 0.229233 0.8778 1.10094 -0.851458 
25 0.0302201 0.755439 0.0157351 1.70731 -2.89764 0.895915 
26 0.139442 0.892594 0.127039 1.5757 2.94216 3.8932 
27 0.255583 0.767529 0.0118203 -0.961067 -0.511378 -2.01023 
57 0.020822 0.754699 0.232286 0.142008 0.806034 1.559 
59 0.264356 0.752689 0.249071 -3.17868 2.5549 -1.08876 
28 0.374976 0.891581 0.124554 0.542097 1.86779 -1.61988 
29 0.499986 0.767192 0.00517904 1.53538 0.887106 2.68652 
30 0.635346 0.881806 0.12144 -1.50041 2.85983 -3.35109 
61 0.49584 0.759178 0.242784 -0.707282 2.81606 -2.46445 
31 0.760679 0.762379 -0.000193329 -0.323086 -2.6755 3.00376 
32 0.892724 0.880125 0.128627 -1.59955 2.08793 -1.99389 
63 0.756984 0.754974 0.238217 2.97505 -2.04351 0.228655 
34 0.12333 0.137325 0.372738 -1.5609 0.907958 -1.8142 
65 -0.00396016 0.013887 0.49194 -1.74971 -0.0326734 -3.1944 
66 0.116811 0.136429 0.608458 1.50897 2.62135 1.41309 
67 0.247945 0.0164675 0.492816 -2.59022 -2.7089 0.292789 
73 -0.00258834 0.271459 0.491333 0.413822 2.0189 3.56414 
75 0.264334 0.256963 0.500197 0.0949684 -0.817448 2.68346 
36 0.385805 0.137759 0.370743 -1.29659 -0.837834 -2.57424 
38 0.632168 0.133829 0.368094 -0.159964 0.940773 0.811021 
68 0.389376 0.131394 0.612424 -2.6255 1.93091 0.138233 
69 0.505177 0.0100202 0.491445 -1.645 -0.539294 0.490145 
70 0.62899 0.136352 0.61956 2.63285 1.81741 -1.18601 
77 0.51144 0.270399 0.49072 -0.168087 -2.43143 -0.223515 
40 0.876946 0.146736 0.374192 -0.366832 -0.152451 1.60319 
71 0.750472 0.00376731 0.487253 -2.34894 2.24851 0.256146 
72 0.880352 0.139798 0.614212 -0.128645 -1.31586 0.957261 
79 0.746193 0.265949 0.492981 -2.02914 -1.13134 -2.53666 
42 0.129645 0.377399 0.373407 -1.60895 -0.957064 1.01408 
50 0.142073 0.632058 0.365667 -1.15953 2.47365 0.609145 
74 0.131844 0.38636 0.617969 -2.70409 -0.128676 1.34628 
81 0.00291524 0.506105 0.495779 -0.544823 2.40778 0.0148764 
82 0.128001 0.641932 0.619307 2.38453 0.530575 2.92874 
83 0.251285 0.511884 0.491391 3.22698 -1.2345 1.54686 
44 0.381325 0.382091 0.377691 1.93577 2.48112 0.194894 
46 0.630167 0.389834 0.363421 0.314789 -2.23941 -0.165825 
52 0.386782 0.634415 0.372783 0.889945 2.12931 -1.3421 
54 0.62652 0.642152 0.356114 0.0991019 -2.46362 1.99089 
76 0.372407 0.390937 0.622649 2.94856 1.38397 -1.34836 
78 0.628048 0.386742 0.623756 2.61905 2.03683 -0.346084 
84 0.374132 0.633983 0.611944 -1.99344 0.137456 1.83501 
85 0.503909 0.506994 0.491298 -2.04195 -0.407728 -1.15264 
86 0.627227 0.628503 0.615941 1.67747 -0.184583 -0.579292 
48 0.879547 0.393217 0.360563 -0.98815 -0.286857 2.52126 
56 0.8812 0.627592 0.356486 1.57568 -0.195437 -2.11609 
80 0.874516 0.389045 0.612937 1.25372 -1.81198 -0.949437 
87 0.746707 0.50753 0.483907 0.336842 2.40732 3.66886 
88 0.879561 0.636478 0.609069 -2.67466 1.48208 2.12058 
58 0.128588 0.891302 0.371428 1.5688 -0.101945 1.48149 
89 0.00933178 0.751362 0.488881 -3.44083 -0.779935 1.80682 
90 0.130622 0.894369 0.616559 -2.17904 -3.11784 -2.15544 
91 0.254001 0.766768 0.481464 0.912014 -2.28463 1.37148 
60 0.384376 0.888332 0.365838 0.534762 -0.364851 -0.61939 
62 0.631017 0.88421 0.351843 -2.81015 0.553377 0.594992 
92 0.367328 0.891071 0.613922 -0.809816 0.777149 0.346248 
93 0.506859 0.76879 0.49588 1.39588 0.845641 -0.565468 
94 0.627656 0.896343 0.618228 -2.88917 -1.7558 2.27949 
64 0.886444 0.878062 0.365612 -0.899447 1.39063 0.595948 
95 0.750023 0.757202 0.491688 1.15077 0.364945 0.118144 
96 0.880156 0.888561 0.606576 -0.299434 0.326363 -1.60776 
97 -0.00305001 0.019589 0.742376 -2.2433 -0.958803 -1.66595 
98 0.123061 0.134126 0.868414 1.12582 0.648196 -4.21399 
99 0.250328 0.0129438 0.738747 2.00055 -1.78196 2.03293 